Program Version,EnergyPlus, Version 22.1.0-ed759b17ee, YMD=2026.03.12 18:00
1,5,Environment Title[],Latitude[deg],Longitude[deg],Time Zone[],Elevation[m]
2,8,Day of Simulation[],Month[],Day of Month[],DST Indicator[1=yes 0=no],Hour[],StartMinute[],EndMinute[],DayType
3,5,Cumulative Day of Simulation[],Month[],Day of Month[],DST Indicator[1=yes 0=no],DayType  ! When Daily Meters Requested
4,2,Cumulative Days of Simulation[],Month[]  ! When Monthly Meters Requested
5,1,Cumulative Days of Simulation[] ! When Run Period Meters Requested
6,1,Calendar Year of Simulation[] ! When Annual Meters Requested
2030,9,Heating:EnergyTransfer [J] !Monthly [Value,Min,Day,Hour,Minute,Max,Day,Hour,Minute]
2079,9,Cooling:EnergyTransfer [J] !Monthly [Value,Min,Day,Hour,Minute,Max,Day,Hour,Minute]
185,9,InteriorLights:Electricity [J] !Monthly [Value,Min,Day,Hour,Minute,Max,Day,Hour,Minute]
821,9,InteriorEquipment:Electricity [J] !Monthly [Value,Min,Day,Hour,Minute,Max,Day,Hour,Minute]
3803,9,Fans:Electricity [J] !Monthly [Value,Min,Day,Hour,Minute,Max,Day,Hour,Minute]
4040,9,WaterSystems:EnergyTransfer [J] !Monthly [Value,Min,Day,Hour,Minute,Max,Day,Hour,Minute]
135,1,Electricity:Facility [J] !Hourly
3420,1,ElectricityNet:Facility [J] !Hourly
End of Data Dictionary
1,RUNPERIOD 1,  45.47, -73.74,  -5.00,  36.00
2,1, 1, 1, 0, 1, 0.00,60.00,Holiday
135,311054625.3452823
3420,311054625.3452823
2,1, 1, 1, 0, 2, 0.00,60.00,Holiday
135,306402707.1071668
3420,306402707.1071668
2,1, 1, 1, 0, 3, 0.00,60.00,Holiday
135,222652558.29857925
3420,222652558.29857928
2,1, 1, 1, 0, 4, 0.00,60.00,Holiday
135,315205345.54058444
3420,315205345.5405844
2,1, 1, 1, 0, 5, 0.00,60.00,Holiday
135,293118627.2754193
3420,293118627.2754193
2,1, 1, 1, 0, 6, 0.00,60.00,Holiday
135,214620098.5208402
3420,214620098.52084026
2,1, 1, 1, 0, 7, 0.00,60.00,Holiday
135,305161791.6854549
3420,305161791.6854549
2,1, 1, 1, 0, 8, 0.00,60.00,Holiday
135,284491204.3055603
3420,284491204.30556035
2,1, 1, 1, 0, 9, 0.00,60.00,Holiday
135,195968206.58915076
3420,195968206.5891508
2,1, 1, 1, 0,10, 0.00,60.00,Holiday
135,277965109.07990015
3420,277965109.07990015
2,1, 1, 1, 0,11, 0.00,60.00,Holiday
135,266525252.84040242
3420,266525252.84040242
2,1, 1, 1, 0,12, 0.00,60.00,Holiday
135,190621965.88001674
3420,190621965.88001674
2,1, 1, 1, 0,13, 0.00,60.00,Holiday
135,252251797.1283056
3420,252251797.1283056
2,1, 1, 1, 0,14, 0.00,60.00,Holiday
135,240651211.03692594
3420,240651211.0369259
2,1, 1, 1, 0,15, 0.00,60.00,Holiday
135,179237806.09539887
3420,179237806.09539884
2,1, 1, 1, 0,16, 0.00,60.00,Holiday
135,254854282.6623224
3420,254854282.6623224
2,1, 1, 1, 0,17, 0.00,60.00,Holiday
135,312450188.90848005
3420,312450188.9084801
2,1, 1, 1, 0,18, 0.00,60.00,Holiday
135,253261885.75596136
3420,253261885.75596136
2,1, 1, 1, 0,19, 0.00,60.00,Holiday
135,346366222.0067444
3420,346366222.0067444
2,1, 1, 1, 0,20, 0.00,60.00,Holiday
135,333892315.95748544
3420,333892315.95748544
2,1, 1, 1, 0,21, 0.00,60.00,Holiday
135,243135947.11466643
3420,243135947.11466646
2,1, 1, 1, 0,22, 0.00,60.00,Holiday
135,333423712.691455
3420,333423712.69145507
2,1, 1, 1, 0,23, 0.00,60.00,Holiday
135,346386279.97352415
3420,346386279.9735242
2,1, 1, 1, 0,24, 0.00,60.00,Holiday
135,258206862.27937278
3420,258206862.27937275
2,2, 1, 2, 0, 1, 0.00,60.00,Monday
135,360727486.42987186
3420,360727486.42987186
2,2, 1, 2, 0, 2, 0.00,60.00,Monday
135,349204330.9911414
3420,349204330.9911414
2,2, 1, 2, 0, 3, 0.00,60.00,Monday
135,257119860.49503624
3420,257119860.49503624
2,2, 1, 2, 0, 4, 0.00,60.00,Monday
135,367663488.64538157
3420,367663488.64538157
2,2, 1, 2, 0, 5, 0.00,60.00,Monday
135,377743385.70282555
3420,377743385.70282555
2,2, 1, 2, 0, 6, 0.00,60.00,Monday
135,430488563.1562617
3420,430488563.1562617
2,2, 1, 2, 0, 7, 0.00,60.00,Monday
135,852985931.3604842
3420,852985931.3604841
2,2, 1, 2, 0, 8, 0.00,60.00,Monday
135,901847872.1484997
3420,901847872.1485
2,2, 1, 2, 0, 9, 0.00,60.00,Monday
135,975499233.2078854
3420,975499233.2078854
2,2, 1, 2, 0,10, 0.00,60.00,Monday
135,859176453.6064519
3420,859176453.6064517
2,2, 1, 2, 0,11, 0.00,60.00,Monday
135,795415538.1806072
3420,795415538.1806072
2,2, 1, 2, 0,12, 0.00,60.00,Monday
135,779994152.0239716
3420,779994152.0239716
2,2, 1, 2, 0,13, 0.00,60.00,Monday
135,748144928.6374252
3420,748144928.6374252
2,2, 1, 2, 0,14, 0.00,60.00,Monday
135,695535131.4472545
3420,695535131.4472544
2,2, 1, 2, 0,15, 0.00,60.00,Monday
135,625104488.1239789
3420,625104488.1239789
2,2, 1, 2, 0,16, 0.00,60.00,Monday
135,619044156.3848634
3420,619044156.3848634
2,2, 1, 2, 0,17, 0.00,60.00,Monday
135,678739765.8002975
3420,678739765.8002974
2,2, 1, 2, 0,18, 0.00,60.00,Monday
135,671753162.3918493
3420,671753162.3918493
2,2, 1, 2, 0,19, 0.00,60.00,Monday
135,648043547.2430573
3420,648043547.2430573
2,2, 1, 2, 0,20, 0.00,60.00,Monday
135,625633448.1585698
3420,625633448.1585696
2,2, 1, 2, 0,21, 0.00,60.00,Monday
135,597799978.772749
3420,597799978.772749
2,2, 1, 2, 0,22, 0.00,60.00,Monday
135,586331399.6159034
3420,586331399.6159034
2,2, 1, 2, 0,23, 0.00,60.00,Monday
135,89076834.22935307
3420,89076834.22935307
2,2, 1, 2, 0,24, 0.00,60.00,Monday
135,120563422.29651543
3420,120563422.2965154
2,3, 1, 3, 0, 1, 0.00,60.00,Tuesday
135,129797944.63536097
3420,129797944.63536096
2,3, 1, 3, 0, 2, 0.00,60.00,Tuesday
135,142445388.3203339
3420,142445388.3203339
2,3, 1, 3, 0, 3, 0.00,60.00,Tuesday
135,164936129.22469777
3420,164936129.2246978
2,3, 1, 3, 0, 4, 0.00,60.00,Tuesday
135,183924907.60233134
3420,183924907.60233137
2,3, 1, 3, 0, 5, 0.00,60.00,Tuesday
135,190150164.9357366
3420,190150164.93573663
2,3, 1, 3, 0, 6, 0.00,60.00,Tuesday
135,345231909.8883506
3420,345231909.8883506
2,3, 1, 3, 0, 7, 0.00,60.00,Tuesday
135,689687591.0102383
3420,689687591.0102382
2,3, 1, 3, 0, 8, 0.00,60.00,Tuesday
135,757424209.560793
3420,757424209.5607932
2,3, 1, 3, 0, 9, 0.00,60.00,Tuesday
135,675496583.8893621
3420,675496583.8893621
2,3, 1, 3, 0,10, 0.00,60.00,Tuesday
135,602364670.7044986
3420,602364670.7044985
2,3, 1, 3, 0,11, 0.00,60.00,Tuesday
135,552163658.003234
3420,552163658.0032339
2,3, 1, 3, 0,12, 0.00,60.00,Tuesday
135,517236659.6982628
3420,517236659.6982628
2,3, 1, 3, 0,13, 0.00,60.00,Tuesday
135,507396631.4091353
3420,507396631.40913516
2,3, 1, 3, 0,14, 0.00,60.00,Tuesday
135,460522006.4741574
3420,460522006.47415733
2,3, 1, 3, 0,15, 0.00,60.00,Tuesday
135,390965765.16860765
3420,390965765.16860765
2,3, 1, 3, 0,16, 0.00,60.00,Tuesday
135,368433484.57051647
3420,368433484.57051635
2,3, 1, 3, 0,17, 0.00,60.00,Tuesday
135,414376572.39728856
3420,414376572.39728856
2,3, 1, 3, 0,18, 0.00,60.00,Tuesday
135,422086277.85344404
3420,422086277.8534441
2,3, 1, 3, 0,19, 0.00,60.00,Tuesday
135,398008541.6049442
3420,398008541.6049443
2,3, 1, 3, 0,20, 0.00,60.00,Tuesday
135,377729222.717786
3420,377729222.71778595
2,3, 1, 3, 0,21, 0.00,60.00,Tuesday
135,373590571.4340877
3420,373590571.43408763
2,3, 1, 3, 0,22, 0.00,60.00,Tuesday
135,375425699.74242246
3420,375425699.74242246
2,3, 1, 3, 0,23, 0.00,60.00,Tuesday
135,85135090.21707608
3420,85135090.21707608
2,3, 1, 3, 0,24, 0.00,60.00,Tuesday
135,80131713.39039224
3420,80131713.39039224
2,4, 1, 4, 0, 1, 0.00,60.00,Wednesday
135,65692966.589712106
3420,65692966.589712106
2,4, 1, 4, 0, 2, 0.00,60.00,Wednesday
135,65407915.15373618
3420,65407915.15373618
2,4, 1, 4, 0, 3, 0.00,60.00,Wednesday
135,72974611.98879819
3420,72974611.98879819
2,4, 1, 4, 0, 4, 0.00,60.00,Wednesday
135,83342085.71480657
3420,83342085.71480657
2,4, 1, 4, 0, 5, 0.00,60.00,Wednesday
135,82884480.77173518
3420,82884480.77173518
2,4, 1, 4, 0, 6, 0.00,60.00,Wednesday
135,201696734.41585374
3420,201696734.4158537
2,4, 1, 4, 0, 7, 0.00,60.00,Wednesday
135,487842920.70910025
3420,487842920.7091001
2,4, 1, 4, 0, 8, 0.00,60.00,Wednesday
135,566933670.7897748
3420,566933670.7897748
2,4, 1, 4, 0, 9, 0.00,60.00,Wednesday
135,470803586.69940686
3420,470803586.6994068
2,4, 1, 4, 0,10, 0.00,60.00,Wednesday
135,381316771.0049686
3420,381316771.0049685
2,4, 1, 4, 0,11, 0.00,60.00,Wednesday
135,340277563.03162825
3420,340277563.03162825
2,4, 1, 4, 0,12, 0.00,60.00,Wednesday
135,329483936.35894364
3420,329483936.3589436
2,4, 1, 4, 0,13, 0.00,60.00,Wednesday
135,359849793.89683545
3420,359849793.89683545
2,4, 1, 4, 0,14, 0.00,60.00,Wednesday
135,317326260.05251026
3420,317326260.0525103
2,4, 1, 4, 0,15, 0.00,60.00,Wednesday
135,293807086.5259362
3420,293807086.5259362
2,4, 1, 4, 0,16, 0.00,60.00,Wednesday
135,299435385.91078806
3420,299435385.91078806
2,4, 1, 4, 0,17, 0.00,60.00,Wednesday
135,360938174.9683324
3420,360938174.9683323
2,4, 1, 4, 0,18, 0.00,60.00,Wednesday
135,369422374.00947714
3420,369422374.0094772
2,4, 1, 4, 0,19, 0.00,60.00,Wednesday
135,349930083.5269663
3420,349930083.5269663
2,4, 1, 4, 0,20, 0.00,60.00,Wednesday
135,340204334.6323385
3420,340204334.6323385
2,4, 1, 4, 0,21, 0.00,60.00,Wednesday
135,346510125.11058044
3420,346510125.11058044
2,4, 1, 4, 0,22, 0.00,60.00,Wednesday
135,358892088.68780744
3420,358892088.6878073
2,4, 1, 4, 0,23, 0.00,60.00,Wednesday
135,85135090.21707608
3420,85135090.21707608
2,4, 1, 4, 0,24, 0.00,60.00,Wednesday
135,80131713.39039224
3420,80131713.39039224
2,5, 1, 5, 0, 1, 0.00,60.00,Thursday
135,77138277.3844917
3420,77138277.3844917
2,5, 1, 5, 0, 2, 0.00,60.00,Thursday
135,94988577.74241391
3420,94988577.74241391
2,5, 1, 5, 0, 3, 0.00,60.00,Thursday
135,101930400.02195053
3420,101930400.02195051
2,5, 1, 5, 0, 4, 0.00,60.00,Thursday
135,109535586.50681727
3420,109535586.50681727
2,5, 1, 5, 0, 5, 0.00,60.00,Thursday
135,130999691.08665591
3420,130999691.0866559
2,5, 1, 5, 0, 6, 0.00,60.00,Thursday
135,251867924.62462482
3420,251867924.6246248
2,5, 1, 5, 0, 7, 0.00,60.00,Thursday
135,540843083.7447183
3420,540843083.7447183
2,5, 1, 5, 0, 8, 0.00,60.00,Thursday
135,653149194.0602055
3420,653149194.0602055
2,5, 1, 5, 0, 9, 0.00,60.00,Thursday
135,587187105.2703171
3420,587187105.270317
2,5, 1, 5, 0,10, 0.00,60.00,Thursday
135,460856475.7913455
3420,460856475.7913454
2,5, 1, 5, 0,11, 0.00,60.00,Thursday
135,397010766.45738333
3420,397010766.45738333
2,5, 1, 5, 0,12, 0.00,60.00,Thursday
135,378892680.92017114
3420,378892680.92017114
2,5, 1, 5, 0,13, 0.00,60.00,Thursday
135,403533608.85923326
3420,403533608.85923326
2,5, 1, 5, 0,14, 0.00,60.00,Thursday
135,344359221.27557
3420,344359221.27557
2,5, 1, 5, 0,15, 0.00,60.00,Thursday
135,314507383.04201543
3420,314507383.0420154
2,5, 1, 5, 0,16, 0.00,60.00,Thursday
135,319439815.83554214
3420,319439815.83554214
2,5, 1, 5, 0,17, 0.00,60.00,Thursday
135,373067976.10832477
3420,373067976.1083247
2,5, 1, 5, 0,18, 0.00,60.00,Thursday
135,377908218.67184114
3420,377908218.67184114
2,5, 1, 5, 0,19, 0.00,60.00,Thursday
135,354974255.92277265
3420,354974255.9227725
2,5, 1, 5, 0,20, 0.00,60.00,Thursday
135,327993189.51408255
3420,327993189.5140825
2,5, 1, 5, 0,21, 0.00,60.00,Thursday
135,323233962.8868739
3420,323233962.88687384
2,5, 1, 5, 0,22, 0.00,60.00,Thursday
135,328520060.2200988
3420,328520060.2200988
2,5, 1, 5, 0,23, 0.00,60.00,Thursday
135,85135090.21707608
3420,85135090.2170761
2,5, 1, 5, 0,24, 0.00,60.00,Thursday
135,80131713.39039224
3420,80131713.39039224
2,6, 1, 6, 0, 1, 0.00,60.00,Friday
135,65692966.589712106
3420,65692966.589712106
2,6, 1, 6, 0, 2, 0.00,60.00,Friday
135,72940242.47695817
3420,72940242.47695817
2,6, 1, 6, 0, 3, 0.00,60.00,Friday
135,75054709.26417887
3420,75054709.26417887
2,6, 1, 6, 0, 4, 0.00,60.00,Friday
135,81318681.46012294
3420,81318681.46012294
2,6, 1, 6, 0, 5, 0.00,60.00,Friday
135,80695205.18938628
3420,80695205.18938626
2,6, 1, 6, 0, 6, 0.00,60.00,Friday
135,177934868.8754274
3420,177934868.87542737
2,6, 1, 6, 0, 7, 0.00,60.00,Friday
135,456604783.8998092
3420,456604783.8998092
2,6, 1, 6, 0, 8, 0.00,60.00,Friday
135,539245133.9442513
3420,539245133.9442513
2,6, 1, 6, 0, 9, 0.00,60.00,Friday
135,468703258.6808403
3420,468703258.6808404
2,6, 1, 6, 0,10, 0.00,60.00,Friday
135,388391856.70720595
3420,388391856.7072059
2,6, 1, 6, 0,11, 0.00,60.00,Friday
135,352488328.7131264
3420,352488328.7131264
2,6, 1, 6, 0,12, 0.00,60.00,Friday
135,344244961.0343081
3420,344244961.0343081
2,6, 1, 6, 0,13, 0.00,60.00,Friday
135,371813541.4555344
3420,371813541.4555344
2,6, 1, 6, 0,14, 0.00,60.00,Friday
135,343101895.16549414
3420,343101895.1654941
2,6, 1, 6, 0,15, 0.00,60.00,Friday
135,333282877.6014872
3420,333282877.6014873
2,6, 1, 6, 0,16, 0.00,60.00,Friday
135,348339657.5196016
3420,348339657.5196015
2,6, 1, 6, 0,17, 0.00,60.00,Friday
135,379817768.94296074
3420,379817768.94296074
2,6, 1, 6, 0,18, 0.00,60.00,Friday
135,372543434.63102174
3420,372543434.6310217
2,6, 1, 6, 0,19, 0.00,60.00,Friday
135,339319316.58326876
3420,339319316.58326876
2,6, 1, 6, 0,20, 0.00,60.00,Friday
135,317767162.4256788
3420,317767162.42567873
2,6, 1, 6, 0,21, 0.00,60.00,Friday
135,312420549.9262575
3420,312420549.9262575
2,6, 1, 6, 0,22, 0.00,60.00,Friday
135,316244468.28005207
3420,316244468.28005207
2,6, 1, 6, 0,23, 0.00,60.00,Friday
135,85135090.21707608
3420,85135090.2170761
2,6, 1, 6, 0,24, 0.00,60.00,Friday
135,80131713.39039224
3420,80131713.39039224
2,7, 1, 7, 0, 1, 0.00,60.00,Saturday
135,54442289.31933267
3420,54442289.31933266
2,7, 1, 7, 0, 2, 0.00,60.00,Saturday
135,54157290.74955594
3420,54157290.74955593
2,7, 1, 7, 0, 3, 0.00,60.00,Saturday
135,62064518.457677364
3420,62064518.45767735
2,7, 1, 7, 0, 4, 0.00,60.00,Saturday
135,75008297.39204566
3420,75008297.39204566
2,7, 1, 7, 0, 5, 0.00,60.00,Saturday
135,83540809.3195873
3420,83540809.31958729
2,7, 1, 7, 0, 6, 0.00,60.00,Saturday
135,219267149.8857286
3420,219267149.88572857
2,7, 1, 7, 0, 7, 0.00,60.00,Saturday
135,469279379.1095897
3420,469279379.1095897
2,7, 1, 7, 0, 8, 0.00,60.00,Saturday
135,516258667.0626911
3420,516258667.062691
2,7, 1, 7, 0, 9, 0.00,60.00,Saturday
135,415501716.7273227
3420,415501716.7273227
2,7, 1, 7, 0,10, 0.00,60.00,Saturday
135,351146458.2068784
3420,351146458.2068784
2,7, 1, 7, 0,11, 0.00,60.00,Saturday
135,306809928.3593623
3420,306809928.35936224
2,7, 1, 7, 0,12, 0.00,60.00,Saturday
135,302122752.1812832
3420,302122752.1812831
2,7, 1, 7, 0,13, 0.00,60.00,Saturday
135,280562621.14930385
3420,280562621.14930385
2,7, 1, 7, 0,14, 0.00,60.00,Saturday
135,259478278.32785767
3420,259478278.32785773
2,7, 1, 7, 0,15, 0.00,60.00,Saturday
135,237800479.00283387
3420,237800479.00283387
2,7, 1, 7, 0,16, 0.00,60.00,Saturday
135,245979686.10783416
3420,245979686.10783413
2,7, 1, 7, 0,17, 0.00,60.00,Saturday
135,320181765.1993222
3420,320181765.1993221
2,7, 1, 7, 0,18, 0.00,60.00,Saturday
135,82965620.96261448
3420,82965620.96261448
2,7, 1, 7, 0,19, 0.00,60.00,Saturday
135,74637639.59254736
3420,74637639.59254734
2,7, 1, 7, 0,20, 0.00,60.00,Saturday
135,63238431.60732892
3420,63238431.60732892
2,7, 1, 7, 0,21, 0.00,60.00,Saturday
135,69059247.21044384
3420,69059247.21044382
2,7, 1, 7, 0,22, 0.00,60.00,Saturday
135,68040133.57614654
3420,68040133.57614654
2,7, 1, 7, 0,23, 0.00,60.00,Saturday
135,69923712.56520618
3420,69923712.56520618
2,7, 1, 7, 0,24, 0.00,60.00,Saturday
135,89876465.4495223
3420,89876465.44952232
2,8, 1, 8, 0, 1, 0.00,60.00,Sunday
135,88544357.57961625
3420,88544357.57961625
2,8, 1, 8, 0, 2, 0.00,60.00,Sunday
135,82542581.12189284
3420,82542581.12189282
2,8, 1, 8, 0, 3, 0.00,60.00,Sunday
135,97618627.57634847
3420,97618627.57634845
2,8, 1, 8, 0, 4, 0.00,60.00,Sunday
135,96588686.5834866
3420,96588686.5834866
2,8, 1, 8, 0, 5, 0.00,60.00,Sunday
135,93855085.47705907
3420,93855085.47705907
2,8, 1, 8, 0, 6, 0.00,60.00,Sunday
135,135250315.30241546
3420,135250315.30241543
2,8, 1, 8, 0, 7, 0.00,60.00,Sunday
135,146352171.579973
3420,146352171.57997304
2,8, 1, 8, 0, 8, 0.00,60.00,Sunday
135,112339110.23175548
3420,112339110.23175547
2,8, 1, 8, 0, 9, 0.00,60.00,Sunday
135,95767691.06164941
3420,95767691.0616494
2,8, 1, 8, 0,10, 0.00,60.00,Sunday
135,83085582.32817833
3420,83085582.32817833
2,8, 1, 8, 0,11, 0.00,60.00,Sunday
135,68894970.48040947
3420,68894970.48040947
2,8, 1, 8, 0,12, 0.00,60.00,Sunday
135,69377104.00285996
3420,69377104.00285996
2,8, 1, 8, 0,13, 0.00,60.00,Sunday
135,63003599.65164077
3420,63003599.651640765
2,8, 1, 8, 0,14, 0.00,60.00,Sunday
135,59524524.704603486
3420,59524524.704603486
2,8, 1, 8, 0,15, 0.00,60.00,Sunday
135,69955566.85432836
3420,69955566.85432836
2,8, 1, 8, 0,16, 0.00,60.00,Sunday
135,75900256.25811058
3420,75900256.25811058
2,8, 1, 8, 0,17, 0.00,60.00,Sunday
135,99328666.64621669
3420,99328666.64621669
2,8, 1, 8, 0,18, 0.00,60.00,Sunday
135,126533499.4559763
3420,126533499.4559763
2,8, 1, 8, 0,19, 0.00,60.00,Sunday
135,128344752.57494476
3420,128344752.57494478
2,8, 1, 8, 0,20, 0.00,60.00,Sunday
135,110900790.90866986
3420,110900790.90866986
2,8, 1, 8, 0,21, 0.00,60.00,Sunday
135,125370847.15521882
3420,125370847.15521881
2,8, 1, 8, 0,22, 0.00,60.00,Sunday
135,120095378.02151354
3420,120095378.02151354
2,8, 1, 8, 0,23, 0.00,60.00,Sunday
135,106639835.66591907
3420,106639835.66591907
2,8, 1, 8, 0,24, 0.00,60.00,Sunday
135,133162747.89238715
3420,133162747.89238715
2,9, 1, 9, 0, 1, 0.00,60.00,Monday
135,149759426.49175912
3420,149759426.49175912
2,9, 1, 9, 0, 2, 0.00,60.00,Monday
135,148190468.17974898
3420,148190468.17974898
2,9, 1, 9, 0, 3, 0.00,60.00,Monday
135,170419367.0427011
3420,170419367.04270107
2,9, 1, 9, 0, 4, 0.00,60.00,Monday
135,166934407.74784985
3420,166934407.74784985
2,9, 1, 9, 0, 5, 0.00,60.00,Monday
135,158335690.15789792
3420,158335690.15789792
2,9, 1, 9, 0, 6, 0.00,60.00,Monday
135,332793519.25319195
3420,332793519.253192
2,9, 1, 9, 0, 7, 0.00,60.00,Monday
135,678387019.3105326
3420,678387019.3105326
2,9, 1, 9, 0, 8, 0.00,60.00,Monday
135,742632606.2982008
3420,742632606.2982007
2,9, 1, 9, 0, 9, 0.00,60.00,Monday
135,686658771.3597448
3420,686658771.3597447
2,9, 1, 9, 0,10, 0.00,60.00,Monday
135,598805362.6509593
3420,598805362.650959
2,9, 1, 9, 0,11, 0.00,60.00,Monday
135,541179211.9244789
3420,541179211.9244789
2,9, 1, 9, 0,12, 0.00,60.00,Monday
135,500918408.0444641
3420,500918408.0444641
2,9, 1, 9, 0,13, 0.00,60.00,Monday
135,506778703.12563455
3420,506778703.12563455
2,9, 1, 9, 0,14, 0.00,60.00,Monday
135,457763091.564802
3420,457763091.564802
2,9, 1, 9, 0,15, 0.00,60.00,Monday
135,437837176.94095474
3420,437837176.94095474
2,9, 1, 9, 0,16, 0.00,60.00,Monday
135,444576751.0966306
3420,444576751.0966305
2,9, 1, 9, 0,17, 0.00,60.00,Monday
135,467894094.1088994
3420,467894094.10889935
2,9, 1, 9, 0,18, 0.00,60.00,Monday
135,479805142.63280773
3420,479805142.63280773
2,9, 1, 9, 0,19, 0.00,60.00,Monday
135,450904346.1016996
3420,450904346.10169953
2,9, 1, 9, 0,20, 0.00,60.00,Monday
135,425365187.6247004
3420,425365187.6247004
2,9, 1, 9, 0,21, 0.00,60.00,Monday
135,416720990.3470229
3420,416720990.3470229
2,9, 1, 9, 0,22, 0.00,60.00,Monday
135,412905807.24724877
3420,412905807.24724877
2,9, 1, 9, 0,23, 0.00,60.00,Monday
135,85135090.21707608
3420,85135090.2170761
2,9, 1, 9, 0,24, 0.00,60.00,Monday
135,80131713.39039224
3420,80131713.39039224
2,10, 1,10, 0, 1, 0.00,60.00,Tuesday
135,74701319.53722517
3420,74701319.53722517
2,10, 1,10, 0, 2, 0.00,60.00,Tuesday
135,77330805.09997362
3420,77330805.09997362
2,10, 1,10, 0, 3, 0.00,60.00,Tuesday
135,97064012.1410312
3420,97064012.1410312
2,10, 1,10, 0, 4, 0.00,60.00,Tuesday
135,101130444.84007046
3420,101130444.84007046
2,10, 1,10, 0, 5, 0.00,60.00,Tuesday
135,108868546.08540992
3420,108868546.08540992
2,10, 1,10, 0, 6, 0.00,60.00,Tuesday
135,300439790.7163811
3420,300439790.7163811
2,10, 1,10, 0, 7, 0.00,60.00,Tuesday
135,578726323.6279869
3420,578726323.627987
2,10, 1,10, 0, 8, 0.00,60.00,Tuesday
135,674830447.5606787
3420,674830447.5606787
2,10, 1,10, 0, 9, 0.00,60.00,Tuesday
135,612710306.7932719
3420,612710306.793272
2,10, 1,10, 0,10, 0.00,60.00,Tuesday
135,494028676.46269226
3420,494028676.46269226
2,10, 1,10, 0,11, 0.00,60.00,Tuesday
135,417705035.18836504
3420,417705035.188365
2,10, 1,10, 0,12, 0.00,60.00,Tuesday
135,389013907.54020727
3420,389013907.54020715
2,10, 1,10, 0,13, 0.00,60.00,Tuesday
135,412993056.5015328
3420,412993056.50153285
2,10, 1,10, 0,14, 0.00,60.00,Tuesday
135,352972595.4845196
3420,352972595.4845196
2,10, 1,10, 0,15, 0.00,60.00,Tuesday
135,319299768.20233476
3420,319299768.20233464
2,10, 1,10, 0,16, 0.00,60.00,Tuesday
135,328099054.73720205
3420,328099054.7372019
2,10, 1,10, 0,17, 0.00,60.00,Tuesday
135,386462346.0006738
3420,386462346.0006738
2,10, 1,10, 0,18, 0.00,60.00,Tuesday
135,397796371.93610674
3420,397796371.9361068
2,10, 1,10, 0,19, 0.00,60.00,Tuesday
135,372751825.67439735
3420,372751825.67439735
2,10, 1,10, 0,20, 0.00,60.00,Tuesday
135,351284691.48924446
3420,351284691.48924446
2,10, 1,10, 0,21, 0.00,60.00,Tuesday
135,348978021.3433476
3420,348978021.3433476
2,10, 1,10, 0,22, 0.00,60.00,Tuesday
135,347056133.31547815
3420,347056133.3154782
2,10, 1,10, 0,23, 0.00,60.00,Tuesday
135,85135090.21707608
3420,85135090.2170761
2,10, 1,10, 0,24, 0.00,60.00,Tuesday
135,80131713.39039224
3420,80131713.39039224
2,11, 1,11, 0, 1, 0.00,60.00,Wednesday
135,65692966.589712106
3420,65692966.589712106
2,11, 1,11, 0, 2, 0.00,60.00,Wednesday
135,73489361.72189215
3420,73489361.72189216
2,11, 1,11, 0, 3, 0.00,60.00,Wednesday
135,75204919.83783624
3420,75204919.83783625
2,11, 1,11, 0, 4, 0.00,60.00,Wednesday
135,75515534.37579845
3420,75515534.37579846
2,11, 1,11, 0, 5, 0.00,60.00,Wednesday
135,86358738.92840193
3420,86358738.92840193
2,11, 1,11, 0, 6, 0.00,60.00,Wednesday
135,212689461.30624503
3420,212689461.306245
2,11, 1,11, 0, 7, 0.00,60.00,Wednesday
135,474281253.9718996
3420,474281253.9718997
2,11, 1,11, 0, 8, 0.00,60.00,Wednesday
135,554324549.8485012
3420,554324549.8485012
2,11, 1,11, 0, 9, 0.00,60.00,Wednesday
135,478717557.3374231
3420,478717557.3374231
2,11, 1,11, 0,10, 0.00,60.00,Wednesday
135,388893896.02207524
3420,388893896.0220752
2,11, 1,11, 0,11, 0.00,60.00,Wednesday
135,359882323.6994784
3420,359882323.6994784
2,11, 1,11, 0,12, 0.00,60.00,Wednesday
135,359288432.1111214
3420,359288432.11112136
2,11, 1,11, 0,13, 0.00,60.00,Wednesday
135,402365184.84273267
3420,402365184.84273267
2,11, 1,11, 0,14, 0.00,60.00,Wednesday
135,351380708.91278976
3420,351380708.9127898
2,11, 1,11, 0,15, 0.00,60.00,Wednesday
135,320660301.2122419
3420,320660301.2122419
2,11, 1,11, 0,16, 0.00,60.00,Wednesday
135,329011316.6364043
3420,329011316.63640416
2,11, 1,11, 0,17, 0.00,60.00,Wednesday
135,402382604.8381611
3420,402382604.838161
2,11, 1,11, 0,18, 0.00,60.00,Wednesday
135,446433343.58458394
3420,446433343.584584
2,11, 1,11, 0,19, 0.00,60.00,Wednesday
135,451347744.99910575
3420,451347744.9991057
2,11, 1,11, 0,20, 0.00,60.00,Wednesday
135,433974748.7156197
3420,433974748.7156196
2,11, 1,11, 0,21, 0.00,60.00,Wednesday
135,439551268.54026955
3420,439551268.5402695
2,11, 1,11, 0,22, 0.00,60.00,Wednesday
135,443539716.9851694
3420,443539716.9851694
2,11, 1,11, 0,23, 0.00,60.00,Wednesday
135,85135090.21707608
3420,85135090.21707608
2,11, 1,11, 0,24, 0.00,60.00,Wednesday
135,84672178.39553924
3420,84672178.39553922
2,12, 1,12, 0, 1, 0.00,60.00,Thursday
135,82346243.24615568
3420,82346243.24615566
2,12, 1,12, 0, 2, 0.00,60.00,Thursday
135,79105639.37083027
3420,79105639.37083027
2,12, 1,12, 0, 3, 0.00,60.00,Thursday
135,99542020.19470167
3420,99542020.19470166
2,12, 1,12, 0, 4, 0.00,60.00,Thursday
135,114684152.64145122
3420,114684152.64145121
2,12, 1,12, 0, 5, 0.00,60.00,Thursday
135,119842883.72860035
3420,119842883.72860035
2,12, 1,12, 0, 6, 0.00,60.00,Thursday
135,307736463.4075537
3420,307736463.40755373
2,12, 1,12, 0, 7, 0.00,60.00,Thursday
135,550822993.0392587
3420,550822993.0392586
2,12, 1,12, 0, 8, 0.00,60.00,Thursday
135,668525330.2468851
3420,668525330.246885
2,12, 1,12, 0, 9, 0.00,60.00,Thursday
135,656652491.1514207
3420,656652491.1514206
2,12, 1,12, 0,10, 0.00,60.00,Thursday
135,551477007.0357972
3420,551477007.0357972
2,12, 1,12, 0,11, 0.00,60.00,Thursday
135,459103711.97915924
3420,459103711.97915936
2,12, 1,12, 0,12, 0.00,60.00,Thursday
135,404412767.4893304
3420,404412767.4893304
2,12, 1,12, 0,13, 0.00,60.00,Thursday
135,410172956.3687104
3420,410172956.3687104
2,12, 1,12, 0,14, 0.00,60.00,Thursday
135,359557924.0284701
3420,359557924.02847004
2,12, 1,12, 0,15, 0.00,60.00,Thursday
135,328939400.43079555
3420,328939400.4307955
2,12, 1,12, 0,16, 0.00,60.00,Thursday
135,340701204.5212666
3420,340701204.5212665
2,12, 1,12, 0,17, 0.00,60.00,Thursday
135,398664535.3216469
3420,398664535.32164687
2,12, 1,12, 0,18, 0.00,60.00,Thursday
135,412802339.39985335
3420,412802339.39985335
2,12, 1,12, 0,19, 0.00,60.00,Thursday
135,388065565.02164936
3420,388065565.0216493
2,12, 1,12, 0,20, 0.00,60.00,Thursday
135,369100729.08303297
3420,369100729.0830329
2,12, 1,12, 0,21, 0.00,60.00,Thursday
135,361474867.81538874
3420,361474867.8153887
2,12, 1,12, 0,22, 0.00,60.00,Thursday
135,354223841.5127488
3420,354223841.5127488
2,12, 1,12, 0,23, 0.00,60.00,Thursday
135,85135090.21707608
3420,85135090.21707608
2,12, 1,12, 0,24, 0.00,60.00,Thursday
135,80131713.39039224
3420,80131713.39039224
2,13, 1,13, 0, 1, 0.00,60.00,Friday
135,65692966.589712106
3420,65692966.589712106
2,13, 1,13, 0, 2, 0.00,60.00,Friday
135,72082644.75938988
3420,72082644.75938989
2,13, 1,13, 0, 3, 0.00,60.00,Friday
135,79939275.31083138
3420,79939275.3108314
2,13, 1,13, 0, 4, 0.00,60.00,Friday
135,81014166.98659663
3420,81014166.98659663
2,13, 1,13, 0, 5, 0.00,60.00,Friday
135,79648424.1586746
3420,79648424.1586746
2,13, 1,13, 0, 6, 0.00,60.00,Friday
135,218002108.6880026
3420,218002108.68800253
2,13, 1,13, 0, 7, 0.00,60.00,Friday
135,486514026.7070677
3420,486514026.7070677
2,13, 1,13, 0, 8, 0.00,60.00,Friday
135,568790856.355645
3420,568790856.355645
2,13, 1,13, 0, 9, 0.00,60.00,Friday
135,542745866.4273219
3420,542745866.4273219
2,13, 1,13, 0,10, 0.00,60.00,Friday
135,447689913.13319373
3420,447689913.1331936
2,13, 1,13, 0,11, 0.00,60.00,Friday
135,393884047.3513739
3420,393884047.3513739
2,13, 1,13, 0,12, 0.00,60.00,Friday
135,396721442.68189967
3420,396721442.68189967
2,13, 1,13, 0,13, 0.00,60.00,Friday
135,430785563.01204777
3420,430785563.01204777
2,13, 1,13, 0,14, 0.00,60.00,Friday
135,369398039.55758226
3420,369398039.55758226
2,13, 1,13, 0,15, 0.00,60.00,Friday
135,330011680.18105364
3420,330011680.1810536
2,13, 1,13, 0,16, 0.00,60.00,Friday
135,344815166.43850034
3420,344815166.4385003
2,13, 1,13, 0,17, 0.00,60.00,Friday
135,431453641.6390436
3420,431453641.6390436
2,13, 1,13, 0,18, 0.00,60.00,Friday
135,481817982.20528895
3420,481817982.20528895
2,13, 1,13, 0,19, 0.00,60.00,Friday
135,488427317.98794234
3420,488427317.9879424
2,13, 1,13, 0,20, 0.00,60.00,Friday
135,501284952.87453943
3420,501284952.87453943
2,13, 1,13, 0,21, 0.00,60.00,Friday
135,521858426.5169579
3420,521858426.5169578
2,13, 1,13, 0,22, 0.00,60.00,Friday
135,546069924.0876302
3420,546069924.0876302
2,13, 1,13, 0,23, 0.00,60.00,Friday
135,100679661.03510836
3420,100679661.03510836
2,13, 1,13, 0,24, 0.00,60.00,Friday
135,120716225.61844349
3420,120716225.61844347
2,14, 1,14, 0, 1, 0.00,60.00,Saturday
135,128710943.02803901
3420,128710943.02803901
2,14, 1,14, 0, 2, 0.00,60.00,Saturday
135,136878949.5569201
3420,136878949.5569201
2,14, 1,14, 0, 3, 0.00,60.00,Saturday
135,136341322.71428314
3420,136341322.71428314
2,14, 1,14, 0, 4, 0.00,60.00,Saturday
135,183476426.11981833
3420,183476426.11981833
2,14, 1,14, 0, 5, 0.00,60.00,Saturday
135,169171612.71606022
3420,169171612.71606022
2,14, 1,14, 0, 6, 0.00,60.00,Saturday
135,273531366.16001743
3420,273531366.1600174
2,14, 1,14, 0, 7, 0.00,60.00,Saturday
135,611013731.5718136
3420,611013731.5718136
2,14, 1,14, 0, 8, 0.00,60.00,Saturday
135,767169832.7031953
3420,767169832.7031953
2,14, 1,14, 0, 9, 0.00,60.00,Saturday
135,680608142.7887369
3420,680608142.7887369
2,14, 1,14, 0,10, 0.00,60.00,Saturday
135,623456422.0555265
3420,623456422.0555265
2,14, 1,14, 0,11, 0.00,60.00,Saturday
135,563195268.1749153
3420,563195268.1749151
2,14, 1,14, 0,12, 0.00,60.00,Saturday
135,532012444.5398821
3420,532012444.5398822
2,14, 1,14, 0,13, 0.00,60.00,Saturday
135,482403974.07427937
3420,482403974.0742794
2,14, 1,14, 0,14, 0.00,60.00,Saturday
135,464629942.5188838
3420,464629942.5188838
2,14, 1,14, 0,15, 0.00,60.00,Saturday
135,442206622.4957228
3420,442206622.4957228
2,14, 1,14, 0,16, 0.00,60.00,Saturday
135,457156563.23912966
3420,457156563.23912966
2,14, 1,14, 0,17, 0.00,60.00,Saturday
135,517053745.4587699
3420,517053745.4587699
2,14, 1,14, 0,18, 0.00,60.00,Saturday
135,83965884.26336737
3420,83965884.26336737
2,14, 1,14, 0,19, 0.00,60.00,Saturday
135,108296105.45707045
3420,108296105.45707045
2,14, 1,14, 0,20, 0.00,60.00,Saturday
135,120405022.85753177
3420,120405022.85753179
2,14, 1,14, 0,21, 0.00,60.00,Saturday
135,128753333.28957526
3420,128753333.28957526
2,14, 1,14, 0,22, 0.00,60.00,Saturday
135,154787935.59759516
3420,154787935.59759519
2,14, 1,14, 0,23, 0.00,60.00,Saturday
135,147131591.27401114
3420,147131591.27401114
2,14, 1,14, 0,24, 0.00,60.00,Saturday
135,137413388.3433739
3420,137413388.3433739
2,15, 1,15, 0, 1, 0.00,60.00,Sunday
135,153576102.63879612
3420,153576102.6387961
2,15, 1,15, 0, 2, 0.00,60.00,Sunday
135,150180718.7941174
3420,150180718.7941174
2,15, 1,15, 0, 3, 0.00,60.00,Sunday
135,148912681.10638654
3420,148912681.10638654
2,15, 1,15, 0, 4, 0.00,60.00,Sunday
135,167423768.83115417
3420,167423768.83115414
2,15, 1,15, 0, 5, 0.00,60.00,Sunday
135,168969228.3783058
3420,168969228.3783058
2,15, 1,15, 0, 6, 0.00,60.00,Sunday
135,166275201.06473845
3420,166275201.06473842
2,15, 1,15, 0, 7, 0.00,60.00,Sunday
135,199632387.20497492
3420,199632387.20497495
2,15, 1,15, 0, 8, 0.00,60.00,Sunday
135,178179115.02799794
3420,178179115.02799797
2,15, 1,15, 0, 9, 0.00,60.00,Sunday
135,152695081.932174
3420,152695081.93217403
2,15, 1,15, 0,10, 0.00,60.00,Sunday
135,155043098.5524681
3420,155043098.5524681
2,15, 1,15, 0,11, 0.00,60.00,Sunday
135,133010526.40759765
3420,133010526.40759766
2,15, 1,15, 0,12, 0.00,60.00,Sunday
135,114187861.98179415
3420,114187861.98179415
2,15, 1,15, 0,13, 0.00,60.00,Sunday
135,117461322.49169675
3420,117461322.49169672