Program Version,EnergyPlus, Version 22.1.0-ed759b17ee, YMD=2026.03.12 16:55
1,5,Environment Title[],Latitude[deg],Longitude[deg],Time Zone[],Elevation[m]
2,8,Day of Simulation[],Month[],Day of Month[],DST Indicator[1=yes 0=no],Hour[],StartMinute[],EndMinute[],DayType
3,5,Cumulative Day of Simulation[],Month[],Day of Month[],DST Indicator[1=yes 0=no],DayType  ! When Daily Meters Requested
4,2,Cumulative Days of Simulation[],Month[]  ! When Monthly Meters Requested
5,1,Cumulative Days of Simulation[] ! When Run Period Meters Requested
6,1,Calendar Year of Simulation[] ! When Annual Meters Requested
2030,9,Heating:EnergyTransfer [J] !Monthly [Value,Min,Day,Hour,Minute,Max,Day,Hour,Minute]
2079,9,Cooling:EnergyTransfer [J] !Monthly [Value,Min,Day,Hour,Minute,Max,Day,Hour,Minute]
185,9,InteriorLights:Electricity [J] !Monthly [Value,Min,Day,Hour,Minute,Max,Day,Hour,Minute]
821,9,InteriorEquipment:Electricity [J] !Monthly [Value,Min,Day,Hour,Minute,Max,Day,Hour,Minute]
3890,9,Fans:Electricity [J] !Monthly [Value,Min,Day,Hour,Minute,Max,Day,Hour,Minute]
4127,9,WaterSystems:EnergyTransfer [J] !Monthly [Value,Min,Day,Hour,Minute,Max,Day,Hour,Minute]
135,1,Electricity:Facility [J] !Hourly
3507,1,ElectricityNet:Facility [J] !Hourly
End of Data Dictionary
1,RUNPERIOD 1,  45.47, -73.74,  -5.00,  36.00
2,1, 1, 1, 0, 1, 0.00,60.00,Holiday
135,281341985.94801766
3507,281341985.94801766
2,1, 1, 1, 0, 2, 0.00,60.00,Holiday
135,267055510.7539901
3507,267055510.7539902
2,1, 1, 1, 0, 3, 0.00,60.00,Holiday
135,199765665.20967633
3507,199765665.20967633
2,1, 1, 1, 0, 4, 0.00,60.00,Holiday
135,277189342.85658926
3507,277189342.85658926
2,1, 1, 1, 0, 5, 0.00,60.00,Holiday
135,262315452.27941564
3507,262315452.2794157
2,1, 1, 1, 0, 6, 0.00,60.00,Holiday
135,191684852.58041227
3507,191684852.58041227
2,1, 1, 1, 0, 7, 0.00,60.00,Holiday
135,270079251.5450936
3507,270079251.5450936
2,1, 1, 1, 0, 8, 0.00,60.00,Holiday
135,252361933.45337987
3507,251698857.26402393
2,1, 1, 1, 0, 9, 0.00,60.00,Holiday
135,175931606.64255348
3507,169695075.9116065
2,1, 1, 1, 0,10, 0.00,60.00,Holiday
135,252204288.77748644
3507,235972558.42708397
2,1, 1, 1, 0,11, 0.00,60.00,Holiday
135,242524388.56014872
3507,215211043.52260044
2,1, 1, 1, 0,12, 0.00,60.00,Holiday
135,174923904.8455881
3507,141961273.09796655
2,1, 1, 1, 0,13, 0.00,60.00,Holiday
135,231984123.9119286
3507,199481037.53859782
2,1, 1, 1, 0,14, 0.00,60.00,Holiday
135,220359071.7892626
3507,193330766.37799144
2,1, 1, 1, 0,15, 0.00,60.00,Holiday
135,164431522.37327003
3507,147072673.24494976
2,1, 1, 1, 0,16, 0.00,60.00,Holiday
135,233724611.66417438
3507,227737282.60076892
2,1, 1, 1, 0,17, 0.00,60.00,Holiday
135,285813091.5084852
3507,285672067.1882202
2,1, 1, 1, 0,18, 0.00,60.00,Holiday
135,230123074.22037536
3507,230123074.22037536
2,1, 1, 1, 0,19, 0.00,60.00,Holiday
135,315661524.05067056
3507,315661524.05067056
2,1, 1, 1, 0,20, 0.00,60.00,Holiday
135,304294999.75071114
3507,304294999.7507111
2,1, 1, 1, 0,21, 0.00,60.00,Holiday
135,220540810.11194083
3507,220540810.1119408
2,1, 1, 1, 0,22, 0.00,60.00,Holiday
135,302427498.9775165
3507,302427498.9775164
2,1, 1, 1, 0,23, 0.00,60.00,Holiday
135,315003049.80823755
3507,315003049.80823755
2,1, 1, 1, 0,24, 0.00,60.00,Holiday
135,234652668.94180965
3507,234652668.9418096
2,2, 1, 2, 0, 1, 0.00,60.00,Monday
135,329642872.49224234
3507,329642872.49224234
2,2, 1, 2, 0, 2, 0.00,60.00,Monday
135,317125957.35857457
3507,317125957.3585745
2,2, 1, 2, 0, 3, 0.00,60.00,Monday
135,232986118.6772419
3507,232986118.67724198
2,2, 1, 2, 0, 4, 0.00,60.00,Monday
135,336681199.9947982
3507,336681199.9947982
2,2, 1, 2, 0, 5, 0.00,60.00,Monday
135,345788141.2535106
3507,345788141.25351065
2,2, 1, 2, 0, 6, 0.00,60.00,Monday
135,407927937.95653534
3507,407927937.95653534
2,2, 1, 2, 0, 7, 0.00,60.00,Monday
135,800259620.2142196
3507,800259620.2142196
2,2, 1, 2, 0, 8, 0.00,60.00,Monday
135,832542123.9639783
3507,831904009.2420397
2,2, 1, 2, 0, 9, 0.00,60.00,Monday
135,890614769.2253459
3507,883950126.3518612
2,2, 1, 2, 0,10, 0.00,60.00,Monday
135,788553860.9358517
3507,772136674.1160047
2,2, 1, 2, 0,11, 0.00,60.00,Monday
135,735290628.6169672
3507,710450245.2124084
2,2, 1, 2, 0,12, 0.00,60.00,Monday
135,719157498.480701
3507,690877017.6903906
2,2, 1, 2, 0,13, 0.00,60.00,Monday
135,682423296.4379469
3507,655459945.3327242
2,2, 1, 2, 0,14, 0.00,60.00,Monday
135,642577776.2890527
3507,619209187.0408183
2,2, 1, 2, 0,15, 0.00,60.00,Monday
135,575477232.3273803
3507,558777046.4971421
2,2, 1, 2, 0,16, 0.00,60.00,Monday
135,568852987.6680009
3507,563273602.5949833
2,2, 1, 2, 0,17, 0.00,60.00,Monday
135,619781962.1780069
3507,619658644.769426
2,2, 1, 2, 0,18, 0.00,60.00,Monday
135,621914729.8900774
3507,621914729.8900774
2,2, 1, 2, 0,19, 0.00,60.00,Monday
135,601600868.438511
3507,601600868.4385109
2,2, 1, 2, 0,20, 0.00,60.00,Monday
135,585354449.0162525
3507,585354449.0162526
2,2, 1, 2, 0,21, 0.00,60.00,Monday
135,558313895.8037792
3507,558313895.8037792
2,2, 1, 2, 0,22, 0.00,60.00,Monday
135,546075528.0423678
3507,546075528.0423678
2,2, 1, 2, 0,23, 0.00,60.00,Monday
135,77229812.8581163
3507,77229812.8581163
2,2, 1, 2, 0,24, 0.00,60.00,Monday
135,90660931.58716777
3507,90660931.58716774
2,3, 1, 3, 0, 1, 0.00,60.00,Tuesday
135,107032752.34527674
3507,107032752.34527674
2,3, 1, 3, 0, 2, 0.00,60.00,Tuesday
135,133189176.37255456
3507,133189176.37255454
2,3, 1, 3, 0, 3, 0.00,60.00,Tuesday
135,129640906.8561085
3507,129640906.8561085
2,3, 1, 3, 0, 4, 0.00,60.00,Tuesday
135,163257080.4142845
3507,163257080.4142845
2,3, 1, 3, 0, 5, 0.00,60.00,Tuesday
135,186268917.37107724
3507,186268917.37107724
2,3, 1, 3, 0, 6, 0.00,60.00,Tuesday
135,276275253.2144594
3507,276275253.2144594
2,3, 1, 3, 0, 7, 0.00,60.00,Tuesday
135,650389074.3251016
3507,650389074.3251014
2,3, 1, 3, 0, 8, 0.00,60.00,Tuesday
135,713152901.136722
3507,713027741.6012347
2,3, 1, 3, 0, 9, 0.00,60.00,Tuesday
135,626636240.9630488
3507,624634923.1842443
2,3, 1, 3, 0,10, 0.00,60.00,Tuesday
135,559298655.0754251
3507,553853792.4440824
2,3, 1, 3, 0,11, 0.00,60.00,Tuesday
135,511590347.4798498
3507,500903617.19009
2,3, 1, 3, 0,12, 0.00,60.00,Tuesday
135,478170237.8716018
3507,464181142.1674622
2,3, 1, 3, 0,13, 0.00,60.00,Tuesday
135,467658970.0177251
3507,452853940.23753995
2,3, 1, 3, 0,14, 0.00,60.00,Tuesday
135,421062738.0758738
3507,407100047.3291362
2,3, 1, 3, 0,15, 0.00,60.00,Tuesday
135,356555689.6483838
3507,341069414.7138158
2,3, 1, 3, 0,16, 0.00,60.00,Tuesday
135,333259365.7758406
3507,326084457.4183771
2,3, 1, 3, 0,17, 0.00,60.00,Tuesday
135,366662450.3198143
3507,366342940.65415853
2,3, 1, 3, 0,18, 0.00,60.00,Tuesday
135,385774711.3732276
3507,385774711.3732276
2,3, 1, 3, 0,19, 0.00,60.00,Tuesday
135,376191471.0750676
3507,376191471.0750675
2,3, 1, 3, 0,20, 0.00,60.00,Tuesday
135,356421372.416626
3507,356421372.41662604
2,3, 1, 3, 0,21, 0.00,60.00,Tuesday
135,353036581.5071052
3507,353036581.5071052
2,3, 1, 3, 0,22, 0.00,60.00,Tuesday
135,353704554.60231566
3507,353704554.60231566
2,3, 1, 3, 0,23, 0.00,60.00,Tuesday
135,75193483.20834227
3507,75193483.20834227
2,3, 1, 3, 0,24, 0.00,60.00,Tuesday
135,71656597.35054387
3507,71656597.35054387
2,4, 1, 4, 0, 1, 0.00,60.00,Wednesday
135,58379131.21819275
3507,58379131.218192756
2,4, 1, 4, 0, 2, 0.00,60.00,Wednesday
135,58379131.21819275
3507,58379131.218192756
2,4, 1, 4, 0, 3, 0.00,60.00,Wednesday
135,58379131.21819275
3507,58379131.218192756
2,4, 1, 4, 0, 4, 0.00,60.00,Wednesday
135,70831581.40706418
3507,70831581.40706418
2,4, 1, 4, 0, 5, 0.00,60.00,Wednesday
135,71788143.71945107
3507,71788143.71945107
2,4, 1, 4, 0, 6, 0.00,60.00,Wednesday
135,180243910.08279905
3507,180243910.08279905
2,4, 1, 4, 0, 7, 0.00,60.00,Wednesday
135,453421238.61570776
3507,453421238.61570776
2,4, 1, 4, 0, 8, 0.00,60.00,Wednesday
135,529857505.6861479
3507,529036290.2347357
2,4, 1, 4, 0, 9, 0.00,60.00,Wednesday
135,414269336.8135708
3507,406929058.39961237
2,4, 1, 4, 0,10, 0.00,60.00,Wednesday
135,336855827.4561452
3507,320539495.4767981
2,4, 1, 4, 0,11, 0.00,60.00,Wednesday
135,300606250.9631179
3507,276324508.7721423
2,4, 1, 4, 0,12, 0.00,60.00,Wednesday
135,289643639.38486373
3507,259927791.56360263
2,4, 1, 4, 0,13, 0.00,60.00,Wednesday
135,315764716.8023771
3507,289208636.9485565
2,4, 1, 4, 0,14, 0.00,60.00,Wednesday
135,278231222.53284115
3507,255687684.145015
2,4, 1, 4, 0,15, 0.00,60.00,Wednesday
135,258005556.94074512
3507,242182292.6709643
2,4, 1, 4, 0,16, 0.00,60.00,Wednesday
135,263784460.34315547
3507,256621814.82392812
2,4, 1, 4, 0,17, 0.00,60.00,Wednesday
135,313333228.39894545
3507,313021388.0091454
2,4, 1, 4, 0,18, 0.00,60.00,Wednesday
135,323371902.2655419
3507,323371902.26554185
2,4, 1, 4, 0,19, 0.00,60.00,Wednesday
135,327871947.13806856
3507,327871947.13806856
2,4, 1, 4, 0,20, 0.00,60.00,Wednesday
135,319649008.8453541
3507,319649008.8453541
2,4, 1, 4, 0,21, 0.00,60.00,Wednesday
135,325150180.7748152
3507,325150180.77481514
2,4, 1, 4, 0,22, 0.00,60.00,Wednesday
135,334911509.190184
3507,334911509.190184
2,4, 1, 4, 0,23, 0.00,60.00,Wednesday
135,75193483.20834227
3507,75193483.20834227
2,4, 1, 4, 0,24, 0.00,60.00,Wednesday
135,71656597.35054387
3507,71656597.35054387
2,5, 1, 5, 0, 1, 0.00,60.00,Thursday
135,67782974.71279539
3507,67782974.71279539
2,5, 1, 5, 0, 2, 0.00,60.00,Thursday
135,71987896.38139288
3507,71987896.38139288
2,5, 1, 5, 0, 3, 0.00,60.00,Thursday
135,86217148.99581765
3507,86217148.99581763
2,5, 1, 5, 0, 4, 0.00,60.00,Thursday
135,93670679.41042954
3507,93670679.41042954
2,5, 1, 5, 0, 5, 0.00,60.00,Thursday
135,98144907.863983
3507,98144907.86398304
2,5, 1, 5, 0, 6, 0.00,60.00,Thursday
135,242773914.1838472
3507,242773914.1838472
2,5, 1, 5, 0, 7, 0.00,60.00,Thursday
135,494605409.79154086
3507,494605409.79154086
2,5, 1, 5, 0, 8, 0.00,60.00,Thursday
135,603880991.2540442
3507,603227140.0357032
2,5, 1, 5, 0, 9, 0.00,60.00,Thursday
135,507121663.35409534
3507,500353230.5551889
2,5, 1, 5, 0,10, 0.00,60.00,Thursday
135,395449325.64817107
3507,378133003.651924
2,5, 1, 5, 0,11, 0.00,60.00,Thursday
135,341601224.6931315
3507,314866216.4944557
2,5, 1, 5, 0,12, 0.00,60.00,Thursday
135,330860865.13724697
3507,298260023.7004411
2,5, 1, 5, 0,13, 0.00,60.00,Thursday
135,347216059.84127986
3507,313917918.52099466
2,5, 1, 5, 0,14, 0.00,60.00,Thursday
135,299325255.55277646
3507,271671877.87199897
2,5, 1, 5, 0,15, 0.00,60.00,Thursday
135,274668474.4861805
3507,258474940.38543734
2,5, 1, 5, 0,16, 0.00,60.00,Thursday
135,279804235.9362662
3507,273857265.021596
2,5, 1, 5, 0,17, 0.00,60.00,Thursday
135,322343630.6473616
3507,322102101.21325547
2,5, 1, 5, 0,18, 0.00,60.00,Thursday
135,326934659.85574144
3507,326934659.8557414
2,5, 1, 5, 0,19, 0.00,60.00,Thursday
135,321752350.957103
3507,321752350.95710295
2,5, 1, 5, 0,20, 0.00,60.00,Thursday
135,299437774.6115145
3507,299437774.61151445
2,5, 1, 5, 0,21, 0.00,60.00,Thursday
135,295972178.7763623
3507,295972178.77636224
2,5, 1, 5, 0,22, 0.00,60.00,Thursday
135,300739735.80416465
3507,300739735.8041646
2,5, 1, 5, 0,23, 0.00,60.00,Thursday
135,75193483.20834227
3507,75193483.20834227
2,5, 1, 5, 0,24, 0.00,60.00,Thursday
135,71656597.35054387
3507,71656597.35054387
2,6, 1, 6, 0, 1, 0.00,60.00,Friday
135,58379131.21819275
3507,58379131.218192756
2,6, 1, 6, 0, 2, 0.00,60.00,Friday
135,58379131.21819275
3507,58379131.218192756
2,6, 1, 6, 0, 3, 0.00,60.00,Friday
135,64033464.89511001
3507,64033464.89511001
2,6, 1, 6, 0, 4, 0.00,60.00,Friday
135,68696211.51774114
3507,68696211.51774114
2,6, 1, 6, 0, 5, 0.00,60.00,Friday
135,68585723.89583564
3507,68585723.89583564
2,6, 1, 6, 0, 6, 0.00,60.00,Friday
135,156805921.60907152
3507,156805921.60907152
2,6, 1, 6, 0, 7, 0.00,60.00,Friday
135,413384964.7540466
3507,413384964.75404656
2,6, 1, 6, 0, 8, 0.00,60.00,Friday
135,494135039.48451555
3507,493347189.977406
2,6, 1, 6, 0, 9, 0.00,60.00,Friday
135,408405149.6805366
3507,401489539.09969056
2,6, 1, 6, 0,10, 0.00,60.00,Friday
135,340641847.3991442
3507,325990145.3359456
2,6, 1, 6, 0,11, 0.00,60.00,Friday
135,309024434.97030294
3507,289051774.767473
2,6, 1, 6, 0,12, 0.00,60.00,Friday
135,300836459.7536775
3507,280248716.65830535
2,6, 1, 6, 0,13, 0.00,60.00,Friday
135,322818912.34408045
3507,303087730.0702121
2,6, 1, 6, 0,14, 0.00,60.00,Friday
135,301004333.5146899
3507,285547648.67142254
2,6, 1, 6, 0,15, 0.00,60.00,Friday
135,294008262.99212515
3507,285024371.21378034
2,6, 1, 6, 0,16, 0.00,60.00,Friday
135,307134190.6490786
3507,304050093.1847038
2,6, 1, 6, 0,17, 0.00,60.00,Friday
135,329080627.62174803
3507,328974806.10196143
2,6, 1, 6, 0,18, 0.00,60.00,Friday
135,322626312.649658
3507,322626312.649658
2,6, 1, 6, 0,19, 0.00,60.00,Friday
135,309146272.0252863
3507,309146272.0252863
2,6, 1, 6, 0,20, 0.00,60.00,Friday
135,289671641.7935449
3507,289671641.7935449
2,6, 1, 6, 0,21, 0.00,60.00,Friday
135,285893495.41386807
3507,285893495.41386807
2,6, 1, 6, 0,22, 0.00,60.00,Friday
135,289217946.0634134
3507,289217946.0634134
2,6, 1, 6, 0,23, 0.00,60.00,Friday
135,75193483.20834227
3507,75193483.20834227
2,6, 1, 6, 0,24, 0.00,60.00,Friday
135,71656597.35054387
3507,71656597.35054387
2,7, 1, 7, 0, 1, 0.00,60.00,Saturday
135,47128537.174814485
3507,47128537.17481449
2,7, 1, 7, 0, 2, 0.00,60.00,Saturday
135,47128537.174814485
3507,47128537.17481449
2,7, 1, 7, 0, 3, 0.00,60.00,Saturday
135,47128537.174814485
3507,47128537.17481449
2,7, 1, 7, 0, 4, 0.00,60.00,Saturday
135,61573271.93175855
3507,61573271.93175856
2,7, 1, 7, 0, 5, 0.00,60.00,Saturday
135,70316402.59224716
3507,70316402.59224716
2,7, 1, 7, 0, 6, 0.00,60.00,Saturday
135,197865239.77919152
3507,197865239.7791915
2,7, 1, 7, 0, 7, 0.00,60.00,Saturday
135,429853202.6085416
3507,429853202.6085416
2,7, 1, 7, 0, 8, 0.00,60.00,Saturday
135,479362220.0408598
3507,478624768.27112293
2,7, 1, 7, 0, 9, 0.00,60.00,Saturday
135,375173516.00729364
3507,367637958.82945585
2,7, 1, 7, 0,10, 0.00,60.00,Saturday
135,308019570.6881783
3507,289533145.49971306
2,7, 1, 7, 0,11, 0.00,60.00,Saturday
135,272227513.7206026
3507,244121488.34979963
2,7, 1, 7, 0,12, 0.00,60.00,Saturday
135,268067920.3334496
3507,234365613.3211133
2,7, 1, 7, 0,13, 0.00,60.00,Saturday
135,248548159.9272104
3507,214468643.7415724
2,7, 1, 7, 0,14, 0.00,60.00,Saturday
135,235289761.67636386
3507,206134206.5814667
2,7, 1, 7, 0,15, 0.00,60.00,Saturday
135,216813837.44193333
3507,197787504.31412187
2,7, 1, 7, 0,16, 0.00,60.00,Saturday
135,224339059.84789145
3507,217396438.14223886
2,7, 1, 7, 0,17, 0.00,60.00,Saturday
135,285366130.7077224
3507,285181043.3134408
2,7, 1, 7, 0,18, 0.00,60.00,Saturday
135,70830172.56456847
3507,70830172.56456847
2,7, 1, 7, 0,19, 0.00,60.00,Saturday
135,63080094.405279845
3507,63080094.40527985
2,7, 1, 7, 0,20, 0.00,60.00,Saturday
135,49585825.174814485
3507,49585825.17481449
2,7, 1, 7, 0,21, 0.00,60.00,Saturday
135,53857932.77860564
3507,53857932.77860565
2,7, 1, 7, 0,22, 0.00,60.00,Saturday
135,54885572.8642235
3507,54885572.86422351
2,7, 1, 7, 0,23, 0.00,60.00,Saturday
135,63371055.72961444
3507,63371055.72961443
2,7, 1, 7, 0,24, 0.00,60.00,Saturday
135,68525480.31800869
3507,68525480.31800869
2,8, 1, 8, 0, 1, 0.00,60.00,Sunday
135,63853199.19302183
3507,63853199.19302183
2,8, 1, 8, 0, 2, 0.00,60.00,Sunday
135,81984951.80004549
3507,81984951.80004549
2,8, 1, 8, 0, 3, 0.00,60.00,Sunday
135,69827255.16234455
3507,69827255.16234455
2,8, 1, 8, 0, 4, 0.00,60.00,Sunday
135,69140785.27740692
3507,69140785.27740692
2,8, 1, 8, 0, 5, 0.00,60.00,Sunday
135,98913014.29712754
3507,98913014.29712754
2,8, 1, 8, 0, 6, 0.00,60.00,Sunday
135,100198664.85291158
3507,100198664.85291158
2,8, 1, 8, 0, 7, 0.00,60.00,Sunday
135,106545890.09874347
3507,106545890.09874347
2,8, 1, 8, 0, 8, 0.00,60.00,Sunday
135,108418418.75965428
3507,107591853.98133059
2,8, 1, 8, 0, 9, 0.00,60.00,Sunday
135,77708557.04298207
3507,70570424.40291044
2,8, 1, 8, 0,10, 0.00,60.00,Sunday
135,65197239.52084321
3507,49605625.36685412
2,8, 1, 8, 0,11, 0.00,60.00,Sunday
135,64588747.93155164
3507,40656500.04525752
2,8, 1, 8, 0,12, 0.00,60.00,Sunday
135,59393924.294891916
3507,32482213.59176349
2,8, 1, 8, 0,13, 0.00,60.00,Sunday
135,53681560.72188132
3507,29516450.68441532
2,8, 1, 8, 0,14, 0.00,60.00,Sunday
135,56285902.64038916
3507,37964167.394403525
2,8, 1, 8, 0,15, 0.00,60.00,Sunday
135,61038449.33715448
3507,50583995.13765934
2,8, 1, 8, 0,16, 0.00,60.00,Sunday
135,57913259.742273584
3507,53457279.10669167
2,8, 1, 8, 0,17, 0.00,60.00,Sunday
135,87319020.58966735
3507,87079824.0296151
2,8, 1, 8, 0,18, 0.00,60.00,Sunday
135,97420951.00143892
3507,97420951.00143892
2,8, 1, 8, 0,19, 0.00,60.00,Sunday
135,94188766.485058
3507,94188766.48505801
2,8, 1, 8, 0,20, 0.00,60.00,Sunday
135,100814686.6778475
3507,100814686.67784752
2,8, 1, 8, 0,21, 0.00,60.00,Sunday
135,96776072.33298083
3507,96776072.33298084
2,8, 1, 8, 0,22, 0.00,60.00,Sunday
135,89227218.96933462
3507,89227218.96933463
2,8, 1, 8, 0,23, 0.00,60.00,Sunday
135,98176948.77923451
3507,98176948.77923453
2,8, 1, 8, 0,24, 0.00,60.00,Sunday
135,107439606.23592904
3507,107439606.23592903
2,9, 1, 9, 0, 1, 0.00,60.00,Monday
135,121178472.35226473
3507,121178472.35226473
2,9, 1, 9, 0, 2, 0.00,60.00,Monday
135,136106019.03143966
3507,136106019.03143972
2,9, 1, 9, 0, 3, 0.00,60.00,Monday
135,138916167.15212074
3507,138916167.15212077
2,9, 1, 9, 0, 4, 0.00,60.00,Monday
135,134069140.08939323
3507,134069140.08939323
2,9, 1, 9, 0, 5, 0.00,60.00,Monday
135,146255410.87955588
3507,146255410.8795559
2,9, 1, 9, 0, 6, 0.00,60.00,Monday
135,298833120.92007566
3507,298833120.92007566
2,9, 1, 9, 0, 7, 0.00,60.00,Monday
135,634296373.2868181
3507,634296373.2868183
2,9, 1, 9, 0, 8, 0.00,60.00,Monday
135,694680178.4120955
3507,694672030.159208
2,9, 1, 9, 0, 9, 0.00,60.00,Monday
135,615624567.4813441
3507,613585916.6203713
2,9, 1, 9, 0,10, 0.00,60.00,Monday
135,540442905.8823618
3507,532050757.2789792
2,9, 1, 9, 0,11, 0.00,60.00,Monday
135,487426070.96721816
3507,475607810.6294063
2,9, 1, 9, 0,12, 0.00,60.00,Monday
135,447892593.1732832
3507,431584235.7320133
2,9, 1, 9, 0,13, 0.00,60.00,Monday
135,450744541.11085284
3507,434547201.1711261
2,9, 1, 9, 0,14, 0.00,60.00,Monday
135,408132288.9849452
3507,393088271.76566404
2,9, 1, 9, 0,15, 0.00,60.00,Monday
135,392660114.0334543
3507,384888845.4497231
2,9, 1, 9, 0,16, 0.00,60.00,Monday
135,398555338.83242637
3507,395887779.3940344
2,9, 1, 9, 0,17, 0.00,60.00,Monday
135,413554069.6026805
3507,413398357.0242285
2,9, 1, 9, 0,18, 0.00,60.00,Monday
135,425633107.2012081
3507,425633107.2012081
2,9, 1, 9, 0,19, 0.00,60.00,Monday
135,419900141.53860885
3507,419900141.53860885
2,9, 1, 9, 0,20, 0.00,60.00,Monday
135,398694030.7285966
3507,398694030.7285966
2,9, 1, 9, 0,21, 0.00,60.00,Monday
135,390794781.0863738
3507,390794781.0863738
2,9, 1, 9, 0,22, 0.00,60.00,Monday
135,385894426.68919706
3507,385894426.689197
2,9, 1, 9, 0,23, 0.00,60.00,Monday
135,75193483.20834227
3507,75193483.20834227
2,9, 1, 9, 0,24, 0.00,60.00,Monday
135,71656597.35054387
3507,71656597.35054387
2,10, 1,10, 0, 1, 0.00,60.00,Tuesday
135,58379131.21819275
3507,58379131.218192756
2,10, 1,10, 0, 2, 0.00,60.00,Tuesday
135,70921442.25759512
3507,70921442.25759512
2,10, 1,10, 0, 3, 0.00,60.00,Tuesday
135,76516823.23953375
3507,76516823.23953375
2,10, 1,10, 0, 4, 0.00,60.00,Tuesday
135,73101091.13079017
3507,73101091.13079017
2,10, 1,10, 0, 5, 0.00,60.00,Tuesday
135,102983656.88615757
3507,102983656.88615757
2,10, 1,10, 0, 6, 0.00,60.00,Tuesday
135,264175015.8427844
3507,264175015.8427844
2,10, 1,10, 0, 7, 0.00,60.00,Tuesday
135,525744979.98506176
3507,525744979.98506165
2,10, 1,10, 0, 8, 0.00,60.00,Tuesday
135,625092411.0149535
3507,624382638.1991421
2,10, 1,10, 0, 9, 0.00,60.00,Tuesday
135,532574049.2428163
3507,525226633.56699973
2,10, 1,10, 0,10, 0.00,60.00,Tuesday
135,426528861.21331465
3507,408480695.2879174
2,10, 1,10, 0,11, 0.00,60.00,Tuesday
135,362106154.3510825
3507,334497144.9860057
2,10, 1,10, 0,12, 0.00,60.00,Tuesday
135,339688906.63237125
3507,305761547.35865915
2,10, 1,10, 0,13, 0.00,60.00,Tuesday
135,357705964.10927516
3507,323075738.4973394
2,10, 1,10, 0,14, 0.00,60.00,Tuesday
135,307554508.2271416
3507,278341544.5265216
2,10, 1,10, 0,15, 0.00,60.00,Tuesday
135,279663159.51167727
3507,260638910.723946
2,10, 1,10, 0,16, 0.00,60.00,Tuesday
135,288428027.4064079
3507,281527796.35777295
2,10, 1,10, 0,17, 0.00,60.00,Tuesday
135,335632847.7023867
3507,335369405.85686946
2,10, 1,10, 0,18, 0.00,60.00,Tuesday
135,346752316.4223106
3507,346752316.4223106
2,10, 1,10, 0,19, 0.00,60.00,Tuesday
135,338785724.13731456
3507,338785724.1373145
2,10, 1,10, 0,20, 0.00,60.00,Tuesday
135,320958089.1219465
3507,320958089.12194645
2,10, 1,10, 0,21, 0.00,60.00,Tuesday
135,320224001.17051864
3507,320224001.1705187
2,10, 1,10, 0,22, 0.00,60.00,Tuesday
135,317784402.4428983
3507,317784402.4428983
2,10, 1,10, 0,23, 0.00,60.00,Tuesday
135,75193483.20834227
3507,75193483.20834227
2,10, 1,10, 0,24, 0.00,60.00,Tuesday
135,71656597.35054387
3507,71656597.35054387
2,11, 1,11, 0, 1, 0.00,60.00,Wednesday
135,58379131.21819275
3507,58379131.218192756
2,11, 1,11, 0, 2, 0.00,60.00,Wednesday
135,58379131.21819275
3507,58379131.218192756
2,11, 1,11, 0, 3, 0.00,60.00,Wednesday
135,58379131.21819275
3507,58379131.218192756
2,11, 1,11, 0, 4, 0.00,60.00,Wednesday
135,69278439.79599762
3507,69278439.79599762
2,11, 1,11, 0, 5, 0.00,60.00,Wednesday
135,70009808.68539034
3507,70009808.68539035
2,11, 1,11, 0, 6, 0.00,60.00,Wednesday
135,168208316.60096574
3507,168208316.60096574
2,11, 1,11, 0, 7, 0.00,60.00,Wednesday
135,435143105.34880126
3507,435143105.34880114
2,11, 1,11, 0, 8, 0.00,60.00,Wednesday
135,509832965.9420178
3507,509151195.81291854
2,11, 1,11, 0, 9, 0.00,60.00,Wednesday
135,418612276.4029109
3507,411093399.1978178
2,11, 1,11, 0,10, 0.00,60.00,Wednesday
135,341982721.3643049
3507,322864126.3601141
2,11, 1,11, 0,11, 0.00,60.00,Wednesday
135,317922929.94446856
3507,288425255.91230786
2,11, 1,11, 0,12, 0.00,60.00,Wednesday
135,316341427.14684415
3507,281002984.6402515
2,11, 1,11, 0,13, 0.00,60.00,Wednesday
135,347968549.58876884
3507,312211868.874343
2,11, 1,11, 0,14, 0.00,60.00,Wednesday
135,307334436.57026213
3507,276530165.66563827
2,11, 1,11, 0,15, 0.00,60.00,Wednesday
135,281528323.9300352
3507,260999027.4962865
2,11, 1,11, 0,16, 0.00,60.00,Wednesday
135,288885608.8650443
3507,281026660.1207478
2,11, 1,11, 0,17, 0.00,60.00,Wednesday
135,344052421.99778265
3507,343768738.09830165
2,11, 1,11, 0,18, 0.00,60.00,Wednesday
135,381358991.466831
3507,381358991.46683097
2,11, 1,11, 0,19, 0.00,60.00,Wednesday
135,400998402.51398295
3507,400998402.51398295
2,11, 1,11, 0,20, 0.00,60.00,Wednesday
135,387931246.5402293
3507,387931246.5402293
2,11, 1,11, 0,21, 0.00,60.00,Wednesday
135,396317760.60333276
3507,396317760.6033329
2,11, 1,11, 0,22, 0.00,60.00,Wednesday
135,398156500.8930204
3507,398156500.8930204
2,11, 1,11, 0,23, 0.00,60.00,Wednesday
135,75193483.20834227
3507,75193483.20834227
2,11, 1,11, 0,24, 0.00,60.00,Wednesday
135,71656597.35054387
3507,71656597.35054387
2,12, 1,12, 0, 1, 0.00,60.00,Thursday
135,64565973.768462375
3507,64565973.76846238
2,12, 1,12, 0, 2, 0.00,60.00,Thursday
135,74082629.78894314
3507,74082629.78894314
2,12, 1,12, 0, 3, 0.00,60.00,Thursday
135,78205150.71133086
3507,78205150.71133086
2,12, 1,12, 0, 4, 0.00,60.00,Thursday
135,87008129.08254325
3507,87008129.08254325
2,12, 1,12, 0, 5, 0.00,60.00,Thursday
135,115467876.00339
3507,115467876.00339
2,12, 1,12, 0, 6, 0.00,60.00,Thursday
135,273182992.2833605
3507,273182992.2833605
2,12, 1,12, 0, 7, 0.00,60.00,Thursday
135,500758499.5483892
3507,500758499.5483892
2,12, 1,12, 0, 8, 0.00,60.00,Thursday
135,612731181.0261352
3507,612345909.2369211
2,12, 1,12, 0, 9, 0.00,60.00,Thursday
135,581232672.3297313
3507,576837661.480686
2,12, 1,12, 0,10, 0.00,60.00,Thursday
135,483029792.5098324
3507,469733972.0812473
2,12, 1,12, 0,11, 0.00,60.00,Thursday
135,392121182.21257055
3507,367652435.6595752
2,12, 1,12, 0,12, 0.00,60.00,Thursday
135,342885719.7037437
3507,311646183.57538563
2,12, 1,12, 0,13, 0.00,60.00,Thursday
135,350595628.96283996
3507,317516288.0764713
2,12, 1,12, 0,14, 0.00,60.00,Thursday
135,311699808.58822924
3507,283951662.9942833
2,12, 1,12, 0,15, 0.00,60.00,Thursday
135,287587639.2040437
3507,269559643.7355398
2,12, 1,12, 0,16, 0.00,60.00,Thursday
135,299152931.71375877
3507,292314231.03366125
2,12, 1,12, 0,17, 0.00,60.00,Thursday
135,345325535.9821037
3507,344919205.3677366
2,12, 1,12, 0,18, 0.00,60.00,Thursday
135,353953457.6152843
3507,353953457.6152842
2,12, 1,12, 0,19, 0.00,60.00,Thursday
135,346373118.96185744
3507,346373118.9618574
2,12, 1,12, 0,20, 0.00,60.00,Thursday
135,326678654.5766419
3507,326678654.5766419
2,12, 1,12, 0,21, 0.00,60.00,Thursday
135,319327423.10655046
3507,319327423.1065504
2,12, 1,12, 0,22, 0.00,60.00,Thursday
135,314545729.5448126
3507,314545729.5448125
2,12, 1,12, 0,23, 0.00,60.00,Thursday
135,75193483.20834227
3507,75193483.20834227
2,12, 1,12, 0,24, 0.00,60.00,Thursday
135,71656597.35054387
3507,71656597.35054387
2,13, 1,13, 0, 1, 0.00,60.00,Friday
135,58379131.21819275
3507,58379131.218192756
2,13, 1,13, 0, 2, 0.00,60.00,Friday
135,58379131.21819275
3507,58379131.218192756
2,13, 1,13, 0, 3, 0.00,60.00,Friday
135,63155036.55043261
3507,63155036.55043262
2,13, 1,13, 0, 4, 0.00,60.00,Friday
135,65310447.23566429
3507,65310447.23566429
2,13, 1,13, 0, 5, 0.00,60.00,Friday
135,74757269.08630124
3507,74757269.08630124
2,13, 1,13, 0, 6, 0.00,60.00,Friday
135,189525384.1362628
3507,189525384.1362628
2,13, 1,13, 0, 7, 0.00,60.00,Friday
135,437847978.81282115
3507,437847978.81282115
2,13, 1,13, 0, 8, 0.00,60.00,Friday
135,514535249.2033497
3507,513786490.1115557
2,13, 1,13, 0, 9, 0.00,60.00,Friday
135,469661190.5472956
3507,463175006.9902066
2,13, 1,13, 0,10, 0.00,60.00,Friday
135,384195803.7904135
3507,366295967.3042547
2,13, 1,13, 0,11, 0.00,60.00,Friday
135,335304980.5955715
3507,305458207.69168544
2,13, 1,13, 0,12, 0.00,60.00,Friday
135,337512939.0880202
3507,301862923.4260129
2,13, 1,13, 0,13, 0.00,60.00,Friday
135,367897571.9213706
3507,334252339.6559907
2,13, 1,13, 0,14, 0.00,60.00,Friday
135,316081110.1088797
3507,285155413.589064
2,13, 1,13, 0,15, 0.00,60.00,Friday
135,285358268.43805504
3507,263864714.73681182
2,13, 1,13, 0,16, 0.00,60.00,Friday
135,296453172.34823346
3507,287661761.71107304
2,13, 1,13, 0,17, 0.00,60.00,Friday
135,365739321.1366849
3507,365411460.7849022
2,13, 1,13, 0,18, 0.00,60.00,Friday
135,415274507.7416026
3507,415274507.74160254
2,13, 1,13, 0,19, 0.00,60.00,Friday
135,440954684.59560394
3507,440954684.5956039
2,13, 1,13, 0,20, 0.00,60.00,Friday
135,455991303.5289935
3507,455991303.5289935
2,13, 1,13, 0,21, 0.00,60.00,Friday
135,484296069.92586756
3507,484296069.92586744
2,13, 1,13, 0,22, 0.00,60.00,Friday
135,510687473.21183634
3507,510687473.21183634
2,13, 1,13, 0,23, 0.00,60.00,Friday
135,85619439.23830934
3507,85619439.23830932
2,13, 1,13, 0,24, 0.00,60.00,Friday
135,100096079.03481264
3507,100096079.03481264
2,14, 1,14, 0, 1, 0.00,60.00,Saturday
135,104289743.9268365
3507,104289743.92683652
2,14, 1,14, 0, 2, 0.00,60.00,Saturday
135,106117171.2549588
3507,106117171.25495878
2,14, 1,14, 0, 3, 0.00,60.00,Saturday
135,109103278.13689132
3507,109103278.13689132
2,14, 1,14, 0, 4, 0.00,60.00,Saturday
135,157209693.3825369
3507,157209693.3825369
2,14, 1,14, 0, 5, 0.00,60.00,Saturday
135,147973970.9439752
3507,147973970.9439752
2,14, 1,14, 0, 6, 0.00,60.00,Saturday
135,240219376.0668413
3507,240219376.0668413
2,14, 1,14, 0, 7, 0.00,60.00,Saturday
135,563292215.6679189
3507,563292215.6679188
2,14, 1,14, 0, 8, 0.00,60.00,Saturday
135,720983376.6759303
3507,720016363.9675994
2,14, 1,14, 0, 9, 0.00,60.00,Saturday
135,636159356.4147222
3507,627958564.3004999
2,14, 1,14, 0,10, 0.00,60.00,Saturday
135,581473237.4452358
3507,563877002.5714812
2,14, 1,14, 0,11, 0.00,60.00,Saturday
135,522678230.5033392
3507,494692495.01687884
2,14, 1,14, 0,12, 0.00,60.00,Saturday
135,491448035.2424795
3507,456785102.8792587
2,14, 1,14, 0,13, 0.00,60.00,Saturday
135,444410270.4599058
3507,409853075.3688481
2,14, 1,14, 0,14, 0.00,60.00,Saturday
135,427465795.2526372
3507,397980613.2529648
2,14, 1,14, 0,15, 0.00,60.00,Saturday
135,403034651.3497511
3507,383758156.4880809
2,14, 1,14, 0,16, 0.00,60.00,Saturday
135,413502524.6875436
3507,405992781.03529775
2,14, 1,14, 0,17, 0.00,60.00,Saturday
135,472715496.99826527
3507,472305417.3936918
2,14, 1,14, 0,18, 0.00,60.00,Saturday
135,70830172.56456847
3507,70830172.56456847
2,14, 1,14, 0,19, 0.00,60.00,Saturday
135,81762053.91594654
3507,81762053.91594654
2,14, 1,14, 0,20, 0.00,60.00,Saturday
135,94996975.01839206
3507,94996975.01839206
2,14, 1,14, 0,21, 0.00,60.00,Saturday
135,105001085.8132526
3507,105001085.8132526
2,14, 1,14, 0,22, 0.00,60.00,Saturday
135,125575228.0755271
3507,125575228.0755271
2,14, 1,14, 0,23, 0.00,60.00,Saturday
135,127681555.74607396
3507,127681555.74607396
2,14, 1,14, 0,24, 0.00,60.00,Saturday
135,113249262.39566652
3507,113249262.39566652
2,15, 1,15, 0, 1, 0.00,60.00,Sunday
135,126552179.12943321
3507,126552179.12943321
2,15, 1,15, 0, 2, 0.00,60.00,Sunday
135,133857246.93346003
3507,133857246.93346003
2,15, 1,15, 0, 3, 0.00,60.00,Sunday
135,124733436.12415697
3507,124733436.12415697
2,15, 1,15, 0, 4, 0.00,60.00,Sunday
135,138908900.68762997
3507,138908900.68763
2,15, 1,15, 0, 5, 0.00,60.00,Sunday
135,151452857.42265078
3507,151452857.4226508
2,15, 1,15, 0, 6, 0.00,60.00,Sunday
135,141902087.70086324
3507,141902087.7008632
2,15, 1,15, 0, 7, 0.00,60.00,Sunday
135,167684382.17551917
3507,167684382.17551923
2,15, 1,15, 0, 8, 0.00,60.00,Sunday
135,159961289.7067538
3507,159951609.18976218
2,15, 1,15, 0, 9, 0.00,60.00,Sunday
135,131626979.39493957
3507,129649753.39400673
2,15, 1,15, 0,10, 0.00,60.00,Sunday
135,131497415.61291347
3507,122157771.88169545
2,15, 1,15, 0,11, 0.00,60.00,Sunday
135,118826874.05719213
3507,101318832.44016305
2,15, 1,15, 0,12, 0.00,60.00,Sunday
135,98579574.54579614
3507,78105957.17985633
2,15, 1,15, 0,13, 0.00,60.00,Sunday
135,96479661.25156736
3507,74895979.00760734